341
Lattice="15.0 0.0 0.0 0.0 15.0 0.0 0.0 0.0 15.0" Properties=species:S:1:pos:R:3:masses:R:1:momenta:R:3:forces:R:3 Built=T with=T Packmol=T energy=-54715.660501572 stress="-0.0 -0.0 -0.0 -0.0 -0.0 -0.0 -0.0 -0.0 -0.0" free_energy=-54715.660501572 pbc="T T T"
H        1.47478389       9.52606311       8.42477608       1.00800000       0.04588937      -0.01212108      -0.20401482      -1.21643216      -0.19097728       0.57399886
O        2.35792551       9.64973651       8.02613307      15.99900000       0.83929775       0.41163277       0.77772687       1.83283921       1.24595110      -0.17494196
H        2.64405927       8.78778402       7.69814124       1.00800000       0.24920956       0.10516556      -0.05249181       0.00786882      -1.27544586      -0.42838314
H        1.03116317      10.20660191      12.54366351       1.00800000       0.01947775      -0.23573986       0.22045379      -0.61696456      -0.13700958       0.81358886
O        0.40253539      10.21695961      13.33353483      15.99900000      -0.91543262       0.25471832       0.25282068       0.75468037       0.57204263      -0.66471177
H        1.01745768      10.18331187      14.11004713       1.00800000      -0.02995014      -0.20041292       0.18666864       0.04044742       0.16206420       0.20872657
H        4.66140410       2.86937637       0.17172441       1.00800000      -0.11959194      -0.09643700       0.25297260       0.67100911       0.57725989       0.03437555
O        3.80629631       2.56687662       0.52184907      15.99900000      -0.07751679       0.31021716       0.25159149      -1.55481463       0.10212467       0.87393659
H        3.27538393       3.33481846       0.91915368       1.00800000      -0.35186947      -0.04007973       0.11835811       0.65657099      -0.89802619      -0.61643886
H        4.19457630      -1.04973123      10.37763940       1.00800000       0.12394894      -0.33561681       0.01729672      -0.21825921      -0.08453203       0.87050953
O        3.92507044      -1.38531750      11.28862605      15.99900000      -1.25729247       0.15839421      -0.94585916       0.92436308      -0.31835561      -0.35271267
H        4.82086503      -1.59445674      11.71893162       1.00800000       0.01301684       0.15321119      -0.10640962      -1.12542248       0.26566935      -0.00927618
H        9.87033410       4.08954287       7.63668234       1.00800000       0.04162902      -0.46671273       0.04713697      -0.18570914       1.12055330      -0.41335928
O        9.23126414       4.67821921       7.10001066      15.99900000       0.33574862       0.41503239      -0.31652475      -0.13383338       0.48918318       0.30674169
H        9.47313431       5.65279331       7.09395339       1.00800000      -0.04830737      -0.08510705       0.10005736       0.12590813      -1.21264778       0.06068951
H        6.21163796       4.03359418       7.38965875       1.00800000       0.29007351      -0.15063264       0.05462518       0.16811844       0.16260798      -0.05211963
O        6.60508970       4.95619731       7.47584403      15.99900000      -0.30192033      -0.46275555       0.32678996       0.12677709      -0.20659789       0.83842534
H        7.61715926       4.84651549       7.45703561       1.00800000      -0.04853293      -0.11876753       0.02678655      -0.47986505      -0.05914296      -0.46997101
H        7.29024392       7.34725002       3.68135983       1.00800000      -0.02124339       0.00349874      -0.05043201      -0.44214324      -0.07156636      -0.34172672
O        6.30734251       7.36490286       3.55189055      15.99900000       0.50840573       0.25029551      -0.89932220       0.67386991       0.33218370       0.53364648
H        6.04690432       6.53507924       3.10528582       1.00800000       0.25733482       0.16548578      -0.01352163      -0.03969915      -0.59967820      -0.52862461
H       12.55134796       7.41549898       1.83834959       1.00800000       0.21220471      -0.08405899       0.26803088      -0.04326198      -0.79672458       0.05003052
O       12.53132177       8.15078566       1.18689773      15.99900000      -0.13807288      -0.91135582      -0.07699787      -0.03794221       1.05701405       0.20418171
H       13.03022127       7.93328737       0.37554587       1.00800000      -0.03311242       0.18654446      -0.04914943       0.05425164      -0.26555841      -0.41551737
H       10.84734430       6.09841600       2.86935175       1.00800000       0.03438603       0.10130314      -0.22513119       1.18177275       0.15927642       0.25148555
O       11.84787755       5.89700801       2.71531574      15.99900000       0.95740173       0.21288887       0.49450910      -1.04601325       0.30393515      -0.03897081
H       11.77130462       5.17352530       2.01825779       1.00800000      -0.01065191      -0.02951920      -0.04658416       0.23647510       0.24638276      -0.06909733
H        9.32199906       2.03369206       6.53741189       1.00800000      -0.09258201      -0.27274976      -0.31115052       0.69113015       0.24389639       0.07382397
O        8.44805846       1.70773989       6.81331847      15.99900000       0.52191011       0.20770988      -0.01509208      -0.40654447       1.09140328       1.11589082
H        8.16905868       1.14684137       6.06914462       1.00800000      -0.01857640       0.21270735       0.04917333      -0.27612276      -1.08751658      -0.67434628
H        5.77774157       6.25984839       6.70452501       1.00800000      -0.02482085      -0.13110875       0.13769698       0.51743397      -0.02399265      -0.26537179
O        5.46651636       7.09375463       6.24371160      15.99900000       1.97692414      -0.82596796       0.58260353      -0.22060899       0.47787514      -0.51256319
H        5.89732637       7.15758182       5.33012362       1.00800000      -0.12034885       0.04523501       0.14354795      -0.34816030      -0.45423199       0.66910808
H        3.76766765       2.37998610      11.13079337       1.00800000       0.05117984       0.17605239      -0.30168366      -0.15347145       0.16762271      -0.26407277
O        4.07219527       2.81946267      11.97383207      15.99900000      -1.21425275       0.14169970       0.65394091      -0.16513795       0.08239803       0.48352309
H        4.07141958       3.79857171      11.84335300       1.00800000       0.02637979      -0.22030165       0.08652944      -0.04210218      -0.24507986      -0.21187010
H        6.86367925      12.05817351       8.11435832       1.00800000      -0.11239415       0.04643058      -0.05659685       0.49233007       0.08699786      -0.21596474
O        6.00435902      11.58463343       8.00124306      15.99900000      -0.86009240      -0.50490691      -0.12196976      -0.67442713      -0.72713887       0.81404732
H        5.73086393      11.21827714       8.92024140       1.00800000      -0.07473393       0.26788447       0.06317237       0.09989021       0.48268050      -1.19815512
H        2.29741531      -0.51079896      -1.10435517       1.00800000       0.11160709       0.08936110      -0.18872582      -0.61720062      -0.01214564      -1.13521701
O        2.69474929      -0.29458414      -0.24510653      15.99900000       0.20512041      -0.19399102       0.61550893       0.98340619       0.32241955       1.51733681
H        2.65415572       0.69042723      -0.16363088       1.00800000       0.14206300       0.07015732      -0.30490485      -0.06591217      -0.27089851       0.10245204
H        2.33652834       8.89944133       2.31407601       1.00800000      -0.33673345       0.18476977       0.05595294      -0.24013537       0.09429044       0.72427679
O        2.44368028       8.11724183       2.91600443      15.99900000       0.53664966      -0.35530963      -0.21419787      -0.07219813       0.64212172      -0.62876264
H        2.76450267       7.48043779       2.21748715       1.00800000       0.00294033      -0.14559265      -0.21032800      -0.04258064      -0.39448368       0.07128884
H        0.89348915       3.74649052       1.59465529       1.00800000       0.07958215       0.18322575      -0.01128821      -0.13040040       0.20760137      -0.58336097
O        1.79294714       4.02761573       1.90218790      15.99900000      -0.15417109      -0.53150239       0.18407495       0.63958637       1.00290490      -0.20077111
H        2.02955210       4.93315385       1.48302518       1.00800000      -0.16739705      -0.12719199      -0.09824472      -0.45773882      -0.77449598       0.37052074
H        2.65504293       6.57008796       8.78184222       1.00800000      -0.26001026      -0.21407646      -0.58525421      -0.34846838      -0.08482350       0.52234054
O        2.33585904       6.06951798       9.59138398      15.99900000       0.42957817       0.00057889      -0.11012268       0.12024214       0.43857721      -1.64721195
H        1.89706704       5.30008263       9.11094942       1.00800000      -0.18691305       0.18347878      -0.16562656      -0.05875324       0.08402893       0.72641353
H       11.74571199      10.73049686       5.75053780       1.00800000      -0.18145230       0.09604194       0.14397249       0.43747796       1.13239639       0.24476580
O       12.25979039      11.55757892       6.09397054      15.99900000      -0.30608706      -0.81376479       0.48084677      -0.11341881      -1.66354319       1.29362547
H       12.38919145      11.32343124       7.09565184       1.00800000       0.09801234       0.05328778       0.14529845      -0.17788302       0.32870391      -1.69159340
H       13.71380270      12.95324004      12.75731770       1.00800000       0.12309263       0.08295060       0.04672865       0.81835683       0.95626218      -0.51454408
O       14.72795898      12.83473179      12.60732891      15.99900000       0.25955283      -0.84115529       0.47362459      -1.65246038      -0.59123738       0.16963466
H       14.88737729      12.09191255      13.23189860       1.00800000      -0.15124373       0.13917883      -0.17169146       0.70003294      -0.44475909      -0.07654939
H       13.71849049       8.50379017       8.19467531       1.00800000      -0.18834069       0.08205137      -0.09819720       1.59829534       0.73245131       0.41654016
O       13.10928133       7.96599535       7.67077477      15.99900000       0.23147182       0.55197855       1.43842804      -0.47299179      -0.72349220       0.20578372
H       12.30452865       8.09487556       8.22057294       1.00800000       0.19081598       0.09666438      -0.01418420      -0.98866727      -0.12190732      -0.18697475
H       11.25999956       3.36446221       9.36945717       1.00800000       0.17236043       0.06631751       0.03275064       0.47759193      -0.76014631      -1.06379003
O       11.22604612       3.42627103       8.34176090      15.99900000       0.09952357       0.84994343       0.82666858      -0.48223456       1.36817416       1.37745700
H       11.73128801       2.77493007       7.84148132       1.00800000      -0.07611338       0.32176393      -0.23859912       0.28701681      -0.89302666       0.29221955
H        8.68067307      13.95380231      11.53148994       1.00800000       0.02454402       0.00545797       0.10512734      -0.53879707      -0.78080502      -0.01342205
O        9.42246159      14.58308880      11.46078368      15.99900000      -0.17135791       0.11981845      -1.63833907      -0.38663630       1.00966712      -0.28965797
H       10.20573335      14.12613011      11.77748082       1.00800000      -0.12764008       0.03213728       0.12516404       1.25966555      -0.51229759       0.42948297
H        5.63449531       2.03928841      11.82334229       1.00800000       0.18603925       0.07352922      -0.06784863       0.00998418       0.34984018      -0.37251502
O        6.45666400       1.92096819      11.26130684      15.99900000      -0.47292424      -0.72229894       0.39460593      -0.42538787      -0.26447083      -0.56301104
H        7.12461044       1.52962895      11.86469101       1.00800000       0.21521192       0.20307697       0.09197598       0.57862023       0.39859314       0.56192071
H       15.37450457       3.46660931       8.12036407       1.00800000      -0.24109859       0.00192416       0.10081249       0.63521274       0.16911498       0.18966437
O       15.62617765       4.33687926       8.55515172      15.99900000      -0.26427561      -0.58257386      -0.82482668       0.26182498      -1.59179013      -0.29378807
H       14.76274807       4.75222000       8.54440322       1.00800000       0.33582518      -0.08903138       0.14259636      -1.00079883       0.99834501      -0.01378917
H       12.22875368       4.92030610       4.01059028       1.00800000       0.27781792       0.04507050       0.11305483      -0.41661628       2.44214842      -2.07407180
O       12.34517088       4.29852499       4.70574283      15.99900000       0.18613209      -0.10888222       0.49338641       0.56882874      -2.45320609       3.47333079
H       12.63540370       4.71084396       5.60515218       1.00800000      -0.08853291      -0.09026709      -0.33759430      -0.30351810       0.18944910      -1.08317906
H        3.58425804      10.57019106      11.18703771       1.00800000       0.26061513      -0.25552888       0.05821894       0.14967800       0.29872385      -0.14025780
O        3.12227552      10.99166555      11.96556151      15.99900000       0.61110229      -0.07610927       0.16999651      -0.51973742       0.98788762      -0.40183548
H        3.25803867      11.98650210      11.84995424       1.00800000      -0.05174209       0.09600279      -0.04002859       0.08737848      -0.79596499      -0.22053244
H        5.93331464      11.72204805      13.27376779       1.00800000      -0.28701809       0.04759319      -0.06717016      -0.02383022       0.58110326      -0.31384907
O        5.89890453      12.70107332      12.99959281      15.99900000      -0.57481331      -0.24492504       0.46638817      -0.06715453      -1.06496069       0.41610432
H        6.10256640      13.19617628      13.82961547       1.00800000       0.12747044       0.13821995       0.10936278       0.09334874       0.20777677      -0.31271696
H       13.05540162      11.11514283       9.53280106       1.00800000      -0.14679484      -0.01304078      -0.21851269      -0.79297554       0.35972170      -0.66359015
O       12.23047530      10.98354008       8.96658046      15.99900000      -0.02264451       1.14315411      -0.47171181       0.94689417      -1.90741775       0.39280552
H       11.85317782      11.84637774       8.88810014       1.00800000      -0.12097905      -0.27366453       0.05854154      -0.68684817       1.94564421       0.16335219
H        2.39382869      13.67225907       1.05467786       1.00800000       0.01644300      -0.29587076      -0.08997529       0.42810993      -0.47824478       0.02919152
O        2.38096213      12.92032131       1.73674281      15.99900000      -0.62189917       0.01842224      -0.01823253       0.42996715       0.27984661       0.37584960
H        3.34974725      12.76909750       2.07042443       1.00800000       0.30372436       0.08137865      -0.13626336      -0.67711689       0.26821710      -0.76392541
H        1.48767629      14.32032949       4.42769039       1.00800000      -0.05326544      -0.01578312       0.04311982      -0.31495135      -0.28900324      -0.42836014
O        1.20280508      14.53468568       3.48559055      15.99900000       0.29340902      -0.15525353      -0.25679818      -0.02358563       0.52854617       0.60353484
H        1.67734653      13.88265937       2.88418479       1.00800000       0.03921417       0.31232274       0.08335222      -0.22256625      -0.30755660       0.07407990
H       10.36145670       3.87493020      16.62644500       1.00800000       0.14906001      -0.05203280      -0.04553507       0.34391944      -0.36956929      -0.76104686
O       11.17858275       4.01069165      16.05020140      15.99900000      -0.45676126      -0.54221479      -0.22182176      -0.01458038      -1.29446397      -0.31411167
H       11.63394076       3.08866269      15.98647282       1.00800000       0.18242611       0.26450124       0.08283640      -0.67859273       0.87636529       0.68816761
H        0.82168997      10.29063279       1.21542054       1.00800000       0.28354060      -0.26192790       0.03745711       0.79148499       0.47754779      -0.19421989
O        1.74251387      10.56552087       0.89599538      15.99900000      -0.60755892       1.01262367      -0.13210969      -1.14529695       0.60580521       0.74282867
H        1.80068697      11.57403410       1.25931613       1.00800000       0.11834080      -0.03611222      -0.15438670       0.39771121      -1.49892650      -0.66992057
H        6.75581441      15.06592590       4.97220233       1.00800000       0.01636994      -0.11361657       0.01625723      -0.47299869      -0.20091926      -0.50798212
O        7.73462166      15.07028318       4.93078593      15.99900000       0.87779660       1.14225473      -0.63625884       0.68469274       0.23734584      -0.49899428
H        7.99857416      14.09695835       4.88764454       1.00800000      -0.10783985      -0.10967002      -0.05356957      -0.05202637       0.02723512       0.29028494
H        0.55141347      13.80253457       6.84066306       1.00800000      -0.10818057       0.09250900      -0.01528832      -0.58464789      -0.51705756       0.21839765
O       -0.28685178      13.76247573       7.39541611      15.99900000       0.48685309       0.11424494       0.12094710      -0.51302462       0.24473648      -0.38666296
H       -1.09730546      13.80811079       6.77960735       1.00800000       0.02477400       0.03438522       0.05695166       1.09361013       0.00257759       0.71025487
H        8.75198319      15.73186266       8.42242297       1.00800000      -0.07967041       0.03763586      -0.01060908      -0.25780826       0.75433875      -0.26719958
O        9.07031496      14.90094917       8.81266577      15.99900000       0.33316816       0.53917064       1.16318935       0.70007533      -1.31931910       0.14011514
H        9.16544033      14.83275375       9.79697379       1.00800000       0.16336509      -0.17356496      -0.15666638      -0.36292684       0.71900191       0.10972494
H       -0.16544826       0.78525933       7.56263648       1.00800000       0.09369242      -0.13451295       0.11247828      -0.31449522      -0.57069814       0.07748021
O       -0.11112833       1.73693764       7.35229425      15.99900000      -0.66795728      -0.34651001      -0.96736086       0.47120567       0.48562301       0.19016949
H       -0.51666574       1.88113235       6.45358880       1.00800000      -0.07268475       0.00156043       0.06093824      -0.14190525      -0.00646039      -0.19949192
H        5.35549253      13.35768381       1.58281303       1.00800000      -0.13156356       0.14381758       0.01231122      -0.08094388       0.34914124      -0.22403067
O        5.03502187      12.77755084       2.31433691      15.99900000       0.12270783       0.18945936      -0.52867236      -0.10829897       0.11339149       0.24168932
H        5.01550292      13.39937904       3.10001565       1.00800000      -0.16742729      -0.29064754      -0.11930408       0.23696550      -0.22772478       0.21019294
H        5.87236838      15.57547661       0.35768408       1.00800000      -0.26395825       0.26474381       0.09459599       0.03055399      -0.58723538       0.00181130
O        5.58959238      14.63669208       0.22072739      15.99900000       0.44952036       0.83057920      -0.30154505      -0.87070672       0.39331554      -0.48302652
H        4.65812914      14.73548422      -0.17721605       1.00800000      -0.29700228       0.21647894       0.13008093       0.77962418      -0.20505904       0.60057867
H        8.92448146       2.39419342      13.17494264       1.00800000      -0.15240001       0.19301620       0.02027927      -0.04350607      -0.84579055      -0.14114484
O        8.43611843       1.51081543      13.01362873      15.99900000      -0.22527001      -0.28881262      -0.43376216       0.07516448       0.66421717       0.79548686
H        9.02501838       0.95769017      12.45294305       1.00800000      -0.24910885       0.03390514       0.13567916       0.28879134      -0.19224456      -0.18393418
H       10.39062208       3.75388915      14.42743618       1.00800000       0.09370799       0.07698156       0.08190569       0.07427688       0.14772271      -0.85120857
O       10.11599317       3.59308659      13.46353026      15.99900000       1.01773670      -0.15694532       0.55087336      -0.44845490       0.15089910       0.65821849
H       10.90840391       3.51845610      12.88514179       1.00800000       0.25230065       0.25307880       0.12059949       0.17467388      -0.12096315      -0.14670346
H        4.44143769       2.54988824       4.14329729       1.00800000      -0.21024164       0.05845262       0.04124676      -0.84804158      -1.21369610      -0.35314350
O        5.00696911       3.27161269       4.41124859      15.99900000      -0.89455266       0.04908089       0.43061919       0.35200872       2.38058230       1.12964822
H        4.50519383       3.75255785       5.17221498       1.00800000       0.10261256      -0.23559788       0.02758927       0.49206105      -0.91225787      -0.76154325
H       11.23681966      12.78789466       2.81425616       1.00800000      -0.03196550      -0.19677712      -0.37700119      -0.09545992       1.36031331       0.74465400
O       10.90313612      13.46780438       3.50850427      15.99900000       1.09280723      -1.25807656      -0.15559477      -0.53926195      -2.12727909      -1.21351888
H       10.04664616      12.96062958       3.72837952       1.00800000       0.00234336       0.18414673       0.06590469       0.81525346       1.00248243       0.62439373
H       10.09168182       8.14993092       8.09171663       1.00800000      -0.12098933       0.29870565      -0.07269784      -0.51156542       0.26705905      -0.47026975
O       10.60870658       8.33118324       8.89778020      15.99900000      -0.40603856       0.40476963       0.64491630       0.83368849      -0.90826216       0.71338830
H       10.71206949       9.28993385       9.00728030       1.00800000       0.07541892       0.05427720      -0.22816286      -0.10035676       0.75508245      -0.19926320
H        8.52462702       9.59394108       0.89977496       1.00800000      -0.05168747       0.08974229      -0.26981640       0.39366679       0.06938161      -1.00675027
O        7.94476707      10.27820314       0.45274277      15.99900000       0.93919673      -0.09547246       0.46756163      -0.02344102      -0.87560239       1.38996082
H        7.48738017      10.51040491       1.30376091       1.00800000       0.19596203      -0.04985360      -0.01023822      -0.38422595       0.70467251       0.08493947
H       10.29385061      14.39544297      -0.11406848       1.00800000      -0.29459388      -0.03950220       0.15739402       0.58511409       0.17941218       0.38630477
O       11.30663034      14.19663320      -0.10991470      15.99900000       0.52579611      -0.21868123      -1.43528728      -0.30587748       1.25956932      -0.15112515
H       11.35081740      13.31063960       0.28843628       1.00800000      -0.01568427      -0.14019218       0.24380235       0.11625274      -0.99074472       0.36039837
H        1.68331095      10.59503586       5.00752404       1.00800000       0.22270726      -0.01138765       0.07665481       0.06986330      -0.29409829       0.61021506
O        2.57953058      10.65531392       5.43007689      15.99900000       0.32932468      -0.63352106      -1.00298494       0.25755166       0.25499256       0.23597223
H        2.53515796      10.32547580       6.39061590       1.00800000      -0.17102291      -0.25873871      -0.07656313      -0.61175492       0.28191656      -0.89500400
H       12.92129333      14.65363001       3.73995218       1.00800000      -0.11046495       0.29796737       0.13846209       1.50614622       0.51107583      -0.78641688
O       13.55655957      15.28954547       3.26193080      15.99900000      -0.03255432       0.29798843      -0.15510152       0.45444233      -0.48064587       0.37714771
H       14.57055924      14.98908450       3.17372561       1.00800000      -0.16089209      -0.01695224       0.26602716      -1.68340332      -0.33811359       0.79168118
H        3.35799815      10.24780802      13.20367032       1.00800000       0.25253559      -0.10382520      -0.02483900      -0.00344929       0.01691911       0.23220281
O        3.55695671       9.60932549      13.98066486      15.99900000      -0.48571860       0.09198707       0.31184525       0.10177164      -0.25658810       1.42046355
H        3.12952060       9.93444068      14.83678237       1.00800000      -0.22876601      -0.11129658       0.09896328       0.22896722      -0.15762203      -0.97543542
H        6.53245583      13.76007740       9.91202795       1.00800000      -0.33319781       0.02828077      -0.32070224       0.85344379      -0.78662415       0.33134466
O        6.01940653      14.51506986       9.59665710      15.99900000      -1.24406452      -0.81086895       1.31253241      -1.14889988       1.81652551      -0.20157265
H        6.21427625      15.28685813      10.21058676       1.00800000       0.12298950       0.11513968      -0.12226400      -0.23497351      -0.32038903      -0.53819530
H        2.37320185      12.61636145       5.75953819       1.00800000       0.07978111       0.02686271       0.06064343      -0.29306689      -0.14247906       0.16926444
O        2.05153836      13.52188848       6.02774138      15.99900000      -1.21280768      -0.19490387      -0.21550481       0.39501054       0.34678632      -0.78214632
H        2.88806176      13.98353879       6.32186440       1.00800000      -0.14516469      -0.11882824      -0.17122949      -0.35557450      -0.32814039       0.36287043
H        8.70346902      13.49873698       8.20342847       1.00800000       0.35965112       0.10952405      -0.18691406       0.29719207      -1.79802516      -0.55367277
O        8.66284411      12.49844520       7.79841562      15.99900000       0.54799713      -0.15228501       0.24131716      -0.32826579       1.42792867       0.44443971
H        8.98228432      11.83042896       8.45255359       1.00800000       0.03566864      -0.20917285      -0.31707235       0.16743039       0.33258168       0.01118193
H        6.23967290       6.42529470      13.86300696       1.00800000       0.00206744      -0.17681662      -0.20479208       0.05162036      -0.09016107      -0.16213169
O        7.02835073       5.85926838      14.08317077      15.99900000      -0.37147760       1.19382650      -0.41746275       0.47565154      -0.13040683      -0.04478290
H        7.67112002       5.82391672      13.31945579       1.00800000       0.14265161      -0.25004330       0.00529849      -0.62343332       0.17719267       0.06078545
H       -0.32511831       7.57691855      11.95083466       1.00800000       0.09682645       0.06501645      -0.01438784      -0.07721219       0.67207544       0.22092239
O        0.40856456       7.68134708      11.30050977      15.99900000       1.25246816      -1.19435699      -0.41058545      -0.53705231       0.59044302       0.48147401
H        0.48154409       6.76800927      11.01729228       1.00800000       0.11593294       0.09481880      -0.03436072       0.57684714      -0.86673932      -0.81876385
H        3.90556075       5.92950514      16.60515431       1.00800000       0.08878175      -0.16973719       0.06861234      -0.18447163       0.36746373      -0.69032393
O        3.13758169       6.36616808      16.09178315      15.99900000      -0.78532365       0.76332704       0.16059085      -0.04412981      -0.58357574       0.24441545
H        3.43665725       6.61705837      15.17023275       1.00800000       0.00621183      -0.11157344       0.06320416       0.31742107      -0.45601296       0.21532696
H       11.91936727       0.72572738       0.86319071       1.00800000      -0.02757276       0.15594497      -0.00893928      -1.57258200      -2.49364418      -2.02280612
O       12.29960271       1.49038876       1.23274025      15.99900000       1.04253550       0.35206635       0.20518765       1.72274551       2.00950105       1.76557578
H       12.83480389       1.03385133       1.96182949       1.00800000       0.04912899       0.07655115      -0.22601722      -0.12834964       0.63889401       0.06593305
H        6.86772422       8.30132250      10.02066739       1.00800000      -0.23959516      -0.11073663      -0.23232637       0.36091110       0.40904163      -0.23532911
O        6.27297184       8.32549301       9.20768607      15.99900000      -0.02096990       1.71297987      -0.06537006      -1.08134674      -2.20328542       1.65995788
H        5.70431863       7.51002890       9.47165715       1.00800000       0.01319181      -0.10108337       0.38506646       0.95600990       1.22054229      -1.00525815
H       14.16281319       9.68022005       4.86378688       1.00800000       0.05220387       0.13071912      -0.07557984       0.16376101      -0.61326413      -0.19282248
O       14.59111361      10.55816204       4.70061921      15.99900000      -0.47513380      -0.34591046       0.10488303      -0.35673874       0.17111760       0.12699665
H       13.98030131      11.07236854       5.31115403       1.00800000       0.14029704      -0.10950346       0.13711301       0.22245698       0.31761437      -0.41347724